LAMMPS (11 Aug 2017)
# LAMMPS input script for standardized atomistic simulations
# Created by emc_setup.pl v2.2.12, July 28, 2017 as part of EMC
# on Mon Mar  5 16:29:28 CET 2018

# Variable definitions

variable	project		index	"bulk"	# project name
variable	source		index	.	# data directory
variable	params		index	.	# parameter directory
variable	temperature	index	300		# system temperature
variable	tdamp		index	100.0		# temperature damping
variable	dielectric	index	1		# medium dielectric
variable	kappa		index	4		# electrostatics kappa
variable	cutoff		index	9.5		# standard cutoff
variable	charge_cutoff	index	9.5		# charge cutoff
variable	precision	index	0.001		# kspace precision
variable	lseed		index	723853		# langevin seed
variable	vseed		index	1486234		# velocity init seed
variable	tequil		index	1000		# equilibration time
variable	trun		index	5000  		# run time
variable	frestart	index	0		# 0: equil, 1: restart
variable	dtrestart	index	100000		# delta restart time
variable	dtdump		index	100		# delta dump time
variable	dtthermo	index	1000		# delta thermo time
variable	timestep	index	1		# integration time step
variable	tfreq		index	10		# profile sampling freq
variable	nsample		index	1000		# profile conf sampling
variable	dtime		equal	${tfreq}*${nsample}	# profile dtime
variable	dtime		equal	10*${nsample}	
variable	dtime		equal	10*1000	
variable	restart		index	${params}/${project}.restart
variable	restart		index	./${project}.restart
variable	restart		index	./bulk.restart

if "${frestart} != 0" then "variable	data		index	${restart}" else "variable	data		index	${params}/${project}.data"
variable	data		index	${params}/${project}.data
variable	data		index	./${project}.data
variable	data		index	./bulk.data
# LAMMPS atomistic input script

echo		screen
  orthogonal box = (0 0 0) to (27.0666 27.0666 27.0666)
  1 by 1 by 1 MPI processor grid
  reading atoms ...
  2006 atoms
  scanning bonds ...
  4 = max bonds/atom
  scanning angles ...
  6 = max angles/atom
  scanning dihedrals ...
  12 = max dihedrals/atom
  scanning impropers ...
  4 = max impropers/atom
  reading bonds ...
  1586 bonds
  reading angles ...
  1930 angles
  reading dihedrals ...
  1698 dihedrals
  reading impropers ...
  992 impropers
  4 = max # of 1-2 neighbors
  7 = max # of 1-3 neighbors
  11 = max # of special neighbors
PPPM initialization ...
WARNING: Using 12-bit tables for long-range coulomb (../kspace.cpp:321)
  G vector (1/distance) = 0.219179
  grid = 8 8 8
  stencil order = 5
  estimated absolute RMS force accuracy = 0.23836
  estimated relative force accuracy = 0.000717814
  using double precision FFTs
  3d grid and FFT values/proc = 2197 512
Neighbor list info ...
  update every 1 steps, delay 10 steps, check yes
  max neighbors/atom: 2000, page size: 100000
  master list distance cutoff = 11.5
  ghost atom cutoff = 11.5
  binsize = 5.75, bins = 5 5 5
  1 neighbor lists, perpetual/occasional/extra = 1 0 0
  (1) pair lj/class2/coul/long, perpetual
      attributes: half, newton on
      pair build: half/bin/newton
      stencil: half/bin/3d/newton
      bin: standard
  PPPM/cg optimization cutoff: 1e-05
  Total charged atoms: 100.0%
  Min/max charged atoms/proc: 100.0% 100.0%
Per MPI rank memory allocation (min/avg/max) = 16.96 | 16.96 | 16.96 Mbytes
Step Temp E_pair E_mol TotEng Press 
       0          300   -864.06711    348.92602    1277.8162    19231.608 
    1000    297.11138   -5903.2511    556.92948   -3570.6283    1271.6265 
Loop time of 22.7831 on 1 procs for 1000 steps with 2006 atoms

Performance: 3.792 ns/day, 6.329 hours/ns, 43.892 timesteps/s
96.0% CPU use with 1 MPI tasks x no OpenMP threads

MPI task timing breakdown:
Section |  min time  |  avg time  |  max time  |%varavg| %total
---------------------------------------------------------------
Pair    | 17.217     | 17.217     | 17.217     |   0.0 | 75.57
Bond    | 2.0891     | 2.0891     | 2.0891     |   0.0 |  9.17
Kspace  | 1.4043     | 1.4043     | 1.4043     |   0.0 |  6.16
Neigh   | 1.8156     | 1.8156     | 1.8156     |   0.0 |  7.97
Comm    | 0.11909    | 0.11909    | 0.11909    |   0.0 |  0.52
Output  | 3.1948e-05 | 3.1948e-05 | 3.1948e-05 |   0.0 |  0.00
Modify  | 0.11381    | 0.11381    | 0.11381    |   0.0 |  0.50
Other   |            | 0.02458    |            |       |  0.11

Nlocal:    2006 ave 2006 max 2006 min
Histogram: 1 0 0 0 0 0 0 0 0 0
Nghost:    10568 ave 10568 max 10568 min
Histogram: 1 0 0 0 0 0 0 0 0 0
Neighs:    646166 ave 646166 max 646166 min
Histogram: 1 0 0 0 0 0 0 0 0 0

Total # of neighbors = 646166
Ave neighs/atom = 322.117
Ave special neighs/atom = 3.50548
Neighbor list builds = 51
Dangerous builds = 0
PPPM initialization ...
WARNING: Using 12-bit tables for long-range coulomb (../kspace.cpp:321)
  G vector (1/distance) = 0.219179
  grid = 8 8 8
  stencil order = 5
  estimated absolute RMS force accuracy = 0.23836
  estimated relative force accuracy = 0.000717814
  using double precision FFTs
  3d grid and FFT values/proc = 2197 512
PPPM initialization ...
WARNING: Using 12-bit tables for long-range coulomb (../kspace.cpp:321)
  G vector (1/distance) = 0.219179
  grid = 8 8 8
  stencil order = 5
  estimated absolute RMS force accuracy = 0.23836
  estimated relative force accuracy = 0.000717814
  using double precision FFTs
  3d grid and FFT values/proc = 2197 512
Per MPI rank memory allocation (min/avg/max) = 18.29 | 18.29 | 18.29 Mbytes
Step Temp E_pair E_mol TotEng Press 
    1000    297.11138   -5903.2511    556.92948   -3570.6283    1271.6265 
    2000    297.33518   -6022.6452    580.34683   -3665.2675    281.28799 
    3000    311.72752   -6012.5449    551.38014   -3598.1177   -166.33791 
    4000    297.91039   -6048.5889    516.69338   -3751.4269   -328.64059 
    5000    304.90559   -6068.1182     504.4505   -3741.3921    1154.0152 
    6000    303.58606   -6051.2181    468.16069    -3768.668   -123.65105 
Loop time of 115.611 on 1 procs for 5000 steps with 2006 atoms

Performance: 3.737 ns/day, 6.423 hours/ns, 43.248 timesteps/s
94.3% CPU use with 1 MPI tasks x no OpenMP threads

MPI task timing breakdown:
Section |  min time  |  avg time  |  max time  |%varavg| %total
---------------------------------------------------------------
Pair    | 88.161     | 88.161     | 88.161     |   0.0 | 76.26
Bond    | 10.751     | 10.751     | 10.751     |   0.0 |  9.30
Kspace  | 7.3221     | 7.3221     | 7.3221     |   0.0 |  6.33
Neigh   | 7.9037     | 7.9037     | 7.9037     |   0.0 |  6.84
Comm    | 0.58391    | 0.58391    | 0.58391    |   0.0 |  0.51
Output  | 0.2048     | 0.2048     | 0.2048     |   0.0 |  0.18
Modify  | 0.55618    | 0.55618    | 0.55618    |   0.0 |  0.48
Other   |            | 0.129      |            |       |  0.11

Nlocal:    2006 ave 2006 max 2006 min
Histogram: 1 0 0 0 0 0 0 0 0 0
Nghost:    10643 ave 10643 max 10643 min
Histogram: 1 0 0 0 0 0 0 0 0 0
Neighs:    645376 ave 645376 max 645376 min
Histogram: 1 0 0 0 0 0 0 0 0 0

Total # of neighbors = 645376
Ave neighs/atom = 321.723
Ave special neighs/atom = 3.50548
Neighbor list builds = 218
Dangerous builds = 0
Total wall time: 0:02:18
